Generated by sg2cfg

144 atoms
2 atom types

 0.0000000000000E+00  1.5246000000000E+01 xlo xhi
 0.0000000000000E+00  1.1884000000000E+01 ylo yhi
 0.0000000000000E+00  1.2091965796411E+01 zlo zhi
 0.0000000000000E+00 -5.9893571590295E+00  0.0000000000000E+00 xy xz yz

Atoms

1 1  9.5538084006654E+00  9.8518360000000E-01  1.0183853593738E+01
2 1 -3.2918441392096E+00  6.9271836000000E+00  7.9540951008794E+00
3 1 -2.9716555969485E-01  1.0898816400000E+01  1.9081122026737E+00
4 1  1.2548486980180E+01  4.9568164000000E+00  4.1378706955320E+00
5 1  1.2277544351544E+01  9.1269120000000E-01  4.1862385587176E+00
6 1 -2.6222931058731E-02  6.8546912000000E+00  1.8597443394881E+00
7 1 -3.0209015105735E+00  1.0971308800000E+01  7.9057272376938E+00
8 1  9.2828657720293E+00  5.0293088000000E+00  1.0232221456923E+01
9 1  9.0699177918039E+00  9.7924160000000E-01  6.1282082656213E+00
10 1 -2.8079535303481E+00  6.9212416000000E+00  1.2009740428996E+01
11 1  1.8672504916667E-01  1.0904758400000E+01  5.9637575307901E+00
12 1  1.2064596371319E+01  4.9627584000000E+00  8.2225367415599E-02
13 1  1.2034322057046E+01  9.7092280000000E-01  7.2551794778468E-02
14 1  2.1699936343945E-01  6.9129228000000E+00  5.9734311034272E+00
15 1 -2.7776792160753E+00  1.0913077200000E+01  1.2019414001633E+01
16 1  9.0396434775311E+00  4.9710772000000E+00  6.1185346929842E+00
17 1  3.1737058543672E+00  1.0493572000000E+00  7.4160026229391E+00
18 1  3.0882584070886E+00  6.9913572000000E+00  1.0721946071678E+01
19 1  6.0829369866033E+00  1.0834642800000E+01  4.6759631734723E+00
20 1  6.1683844338820E+00  4.8926428000000E+00  1.3700197247334E+00
21 1  6.2021409198809E+00  8.6277840000000E-01  1.1572011267166E+00
22 1  6.0491805006044E+00  6.8047784000000E+00  4.8887817714891E+00
23 1  3.0545019210897E+00  1.1021221600000E+01  1.0934764669695E+01
24 1  3.2074623403662E+00  5.0792216000000E+00  7.2031840249223E+00
25 1 -1.4015081272438E-01  9.2814040000000E-01  9.5139586886165E+00
26 1  6.4021150741802E+00  6.8701404000000E+00  8.6239900060006E+00
27 1  9.3967936536949E+00  1.0955859600000E+01  2.5780071077949E+00
28 1  2.8545277667904E+00  5.0138596000000E+00  3.4679757904108E+00
29 1  2.6160912310744E+00  9.8874880000000E-01  3.4691849869904E+00
30 1  9.6352301894108E+00  6.9307488000000E+00  2.5767979112153E+00
31 1  6.6405516098961E+00  1.0895251200000E+01  8.6227808094210E+00
32 1 -3.7858734844028E-01  4.9532512000000E+00  9.5151678851961E+00
33 1  6.2869001311807E+00  2.9484204000000E+00  8.7303993050090E+00
34 1 -2.4935869724919E-02  8.8904204000000E+00  9.4075493896081E+00
35 1  2.9697427097898E+00  8.9355796000000E+00  3.3615664914024E+00
36 1  9.2815787106955E+00  2.9935796000000E+00  2.6844164068033E+00
37 1  5.8575182718324E+00  2.6584508000000E+00  5.0387221473646E+00
38 1  6.3938031486528E+00  8.6004508000000E+00  1.0072607508411E+00
39 1  3.3991245691381E+00  9.2255492000000E+00  7.0532436490468E+00
40 1  2.8628396923177E+00  3.2835492000000E+00  1.1084705045570E+01
41 1  1.4893437800656E-01  2.8331456000000E+00  5.7630308985697E+00
42 1  1.2102387042479E+01  8.7751456000000E+00  2.8295199963603E-01
43 1  9.1077084629640E+00  9.0508544000000E+00  6.3289348978417E+00
44 1 -2.8457442015082E+00  3.1088544000000E+00  1.1809013796775E+01
45 1 -6.1400573582724E-02  2.7618416000000E+00  1.6106498440820E+00
46 1  1.2312721994068E+01  8.7038416000000E+00  4.4353330541237E+00
47 1  9.3180434145533E+00  9.1221584000000E+00  1.0481315952329E+01
48 1 -3.0560791530975E+00  3.1801584000000E+00  7.6566327422877E+00
49 2  1.1427082159552E+01  2.9662464000000E+00  3.5393183886096E+00
50 2  8.2423926093319E-01  8.9082464000000E+00  2.5066645095961E+00
51 2 -2.1704393185815E+00  8.9177536000000E+00  8.5526474078018E+00
52 2  8.4324035800373E+00  2.9757536000000E+00  9.5853012868153E+00
53 2  5.3565064819166E+00  8.7941600000000E-01  8.1802148612723E+00
54 2  9.0545777953924E-01  6.8214160000000E+00  9.9577338333448E+00
55 2  3.9001363590540E+00  1.1004584000000E+01  3.9117509351391E+00
56 2  8.3511850614313E+00  5.0625840000000E+00  2.1342319630666E+00
57 2  8.2986940044308E+00  1.0885744000000E+00  2.0278226640582E+00
58 2  3.9526274160545E+00  7.0305744000000E+00  4.0181602341475E+00
59 2  9.5794883653978E-01  1.0795425600000E+01  1.0064143132353E+01
60 2  5.3040154249160E+00  4.8534256000000E+00  8.0738055622639E+00
61 2  5.0934267916749E+00  2.8521600000000E+00  8.8392269971767E-01
62 2  7.1578946288103E+00  8.7941600000000E+00  5.1620601984880E+00
63 2  4.1632160492956E+00  9.0318400000000E+00  1.1208043096694E+01
64 2  2.0987482121602E+00  3.0898400000000E+00  6.9299055979234E+00
65 2 -3.7151518509987E+00  1.0089516000000E+00  1.1428116874188E+01
66 2  9.9771161124546E+00  6.9509516000000E+00  6.7098318204287E+00
67 2  1.2971794691969E+01  1.0875048400000E+01  6.6384892222298E-01
68 2 -7.2047327148401E-01  4.9330484000000E+00  5.3821339759827E+00
69 2 -1.0289872857341E+00  9.3051720000000E-01  5.3555316512306E+00
70 2  1.3280308706219E+01  6.8725172000000E+00  6.9045124697509E-01
71 2  1.0285630126705E+01  1.0953482800000E+01  6.7364341451808E+00
72 2 -4.0236658652489E+00  5.0114828000000E+00  1.1401514549436E+01
73 2  8.3041478910951E+00  1.4652972000000E+00  1.1998857659779E+01
74 2 -2.0421836296393E+00  7.4072972000000E+00  6.1390910348381E+00
75 2  9.5249494987547E-01  1.0418702800000E+01  9.3108136632368E-02
76 2  1.1298826470610E+01  4.4767028000000E+00  5.9528747615733E+00
77 2  1.1298611184611E+01  1.6780208000000E+00  6.1656933595902E+00
78 2 -5.0366469231551E+00  7.6200208000000E+00  1.1972255335027E+01
79 2 -2.0419683436403E+00  1.0205979200000E+01  5.9262724368212E+00
80 2  1.4293289764126E+01  4.2639792000000E+00  1.1971046138447E-01
81 2  9.1488021433548E+00  2.9757536000000E+00  4.9685887457454E+00
82 2  3.1025192771305E+00  8.9177536000000E+00  1.0773941524603E+00
83 2  1.0784069761575E-01  8.9082464000000E+00  7.1233770506659E+00
84 2  6.1541235638401E+00  2.9662464000000E+00  1.1014571643951E+01
85 2  1.1536023277393E+00  1.7552668000000E+00  1.1303569626485E+01
86 2  5.1083619337165E+00  7.6972668000000E+00  6.8343790681317E+00
87 2  8.1030405132313E+00  1.0128733200000E+01  7.8839616992602E-01
88 2  4.1482809072540E+00  4.1867332000000E+00  5.2575867282797E+00
89 2  3.8575184786179E+00  1.4605436000000E+00  5.3059545914653E+00
90 2  8.3938029418674E+00  7.4025436000000E+00  7.4002830674038E-01
91 2  5.3991243623527E+00  1.0423456400000E+01  6.7860112049461E+00
92 2  8.6283989910314E-01  4.4814564000000E+00  1.1351937489671E+01
93 2 -1.1647273351864E+00  2.8010588000000E+00  1.0286635303007E+01
94 2  7.4266915966422E+00  8.7430588000000E+00  7.8513133916099E+00
95 2  1.0421370176157E+01  9.0829412000000E+00  1.8053304934042E+00
96 2  1.8299512443284E+00  3.1409412000000E+00  4.2406524048015E+00
97 2  8.4247104603829E+00  4.2544720000000E-01  8.2588126389490E+00
98 2 -2.1627461989271E+00  6.3674472000000E+00  9.8791360556681E+00
99 2  8.3193238058766E-01  1.1458552800000E+01  3.8331531574624E+00
100 2  1.1419389039898E+01  5.5165528000000E+00  2.2128297407433E+00
101 2  1.0936796418726E+01  7.4156160000000E-01  2.0205674845803E+00
102 2  1.3145250017591E+00  6.6835616000000E+00  4.0254154136253E+00
103 2 -1.6801535777556E+00  1.1142438400000E+01  1.0071398311831E+01
104 2  7.9421178392114E+00  5.2004384000000E+00  8.0665503827860E+00
105 2 -4.2270609982025E+00  2.4302780000000E+00  9.3374159879889E+00
106 2  1.0489025259658E+01  8.3722780000000E+00  8.8005327066282E+00
107 2  1.3483703839173E+01  9.4537220000000E+00  2.7545498084225E+00
108 2 -1.2323824186878E+00  3.5117220000000E+00  3.2914330897832E+00
109 2  5.9652557811311E+00  9.4477800000000E-01  3.4268631067030E+00
110 2  6.2860656393542E+00  6.8867780000000E+00  2.6191197915027E+00
111 2  3.2913870598395E+00  1.0939222000000E+01  8.6651026897084E+00
112 2  2.9705772016163E+00  4.9972220000000E+00  9.4728460049087E+00
113 2  8.7597168992465E-01  5.1576560000000E-01  7.5332946911643E+00
114 2  5.3859925715312E+00  6.4577656000000E+00  1.0604654003453E+01
115 2  8.3806711510459E+00  1.1368234400000E+01  4.5586711052471E+00
116 2  3.8706502694394E+00  5.4262344000000E+00  1.4873117929586E+00
117 2  3.8480550764060E+00  5.1220040000000E-01  1.6191142201395E+00
118 2  8.4032663440793E+00  6.4542004000000E+00  4.4268686780662E+00
119 2  5.4085877645646E+00  1.1371799600000E+01  1.0472851576272E+01
120 2  8.5337649689123E-01  5.4297996000000E+00  7.6650971183452E+00
121 2  3.4757056949441E+00  2.4742488000000E+00  9.1209698002331E+00
122 2  2.7862585665117E+00  8.4162488000000E+00  9.0169788943840E+00
123 2  5.7809371460265E+00  9.4097512000000E+00  2.9709959961783E+00
124 2  6.4703842744588E+00  3.4677512000000E+00  3.0749869020274E+00
125 2  1.3936508439354E+01  1.0172704000000E+00  2.6191197915027E+00
126 2 -1.6851870188689E+00  6.9592704000000E+00  3.4268631067030E+00
127 2 -4.6798655983837E+00  1.0866729600000E+01  9.4728460049087E+00
128 2  1.0941829859839E+01  4.9247296000000E+00  8.6651026897084E+00
129 2  3.7852278917290E+00  1.2264288000000E+00  1.1524852600560E+01
130 2  2.4767363697268E+00  7.1684288000000E+00  6.6130960940574E+00
131 2  5.4714149492415E+00  1.0657571200000E+01  5.6711319585169E-01
132 2  6.7799064712438E+00  4.7155712000000E+00  5.4788697023540E+00
133 2  7.3392329837052E+00  2.3102496000000E+00  6.8428434441892E+00
134 2 -1.0772687222494E+00  8.2522496000000E+00  1.1295105250428E+01
135 2  1.9174098572653E+00  9.5737504000000E+00  5.2491223522222E+00
136 2  1.0333911563220E+01  3.6317504000000E+00  7.9686054598351E-01
137 2  2.2545766691677E+00  2.4587996000000E+00  1.6904568183383E+00
138 2  9.9967447513176E+00  8.4007996000000E+00  4.3555260798674E+00
139 2  7.0020661718029E+00  9.4252004000000E+00  1.0401508978073E+01
140 2 -7.4010191034705E-01  3.4832004000000E+00  7.7364397165440E+00
141 2 -2.0731956466969E+00  1.1479944000000E+00  8.2116539723430E+00
142 2  8.3351599081527E+00  7.0899944000000E+00  9.9262947222741E+00
143 2  1.1329838487667E+01  1.0736005600000E+01  3.8803118240684E+00
144 2  9.2148293281782E-01  4.7940056000000E+00  2.1656710741373E+00
