144
Atoms. Timestep: 0
1 9.55381 0.985184 10.1839
1 -3.29184 6.92718 7.9541
1 -0.297166 10.8988 1.90811
1 12.5485 4.95682 4.13787
1 12.2775 0.912691 4.18624
1 -0.0262229 6.85469 1.85974
1 -3.0209 10.9713 7.90573
1 9.28287 5.02931 10.2322
1 9.06992 0.979242 6.12821
1 -2.80795 6.92124 12.0097
1 0.186725 10.9048 5.96376
1 12.0646 4.96276 0.0822254
1 12.0343 0.970923 0.0725518
1 0.216999 6.91292 5.97343
1 -2.77768 10.9131 12.0194
1 9.03964 4.97108 6.11853
1 3.17371 1.04936 7.416
1 3.08826 6.99136 10.7219
1 6.08294 10.8346 4.67596
1 6.16838 4.89264 1.37002
1 6.20214 0.862778 1.1572
1 6.04918 6.80478 4.88878
1 3.0545 11.0212 10.9348
1 3.20746 5.07922 7.20318
1 -0.140151 0.92814 9.51396
1 6.40212 6.87014 8.62399
1 9.39679 10.9559 2.57801
1 2.85453 5.01386 3.46798
1 2.61609 0.988749 3.46918
1 9.63523 6.93075 2.5768
1 6.64055 10.8953 8.62278
1 -0.378587 4.95325 9.51517
1 6.2869 2.94842 8.7304
1 -0.0249359 8.89042 9.40755
1 2.96974 8.93558 3.36157
1 9.28158 2.99358 2.68442
1 5.85752 2.65845 5.03872
1 6.3938 8.60045 1.00726
1 3.39912 9.22555 7.05324
1 2.86284 3.28355 11.0847
1 0.148934 2.83315 5.76303
1 12.1024 8.77515 0.282952
1 9.10771 9.05085 6.32893
1 -2.84574 3.10885 11.809
1 -0.0614006 2.76184 1.61065
1 12.3127 8.70384 4.43533
1 9.31804 9.12216 10.4813
1 -3.05608 3.18016 7.65663
2 11.4271 2.96625 3.53932
2 0.824239 8.90825 2.50666
2 -2.17044 8.91775 8.55265
2 8.4324 2.97575 9.5853
2 5.35651 0.879416 8.18021
2 0.905458 6.82142 9.95773
2 3.90014 11.0046 3.91175
2 8.35119 5.06258 2.13423
2 8.29869 1.08857 2.02782
2 3.95263 7.03057 4.01816
2 0.957949 10.7954 10.0641
2 5.30402 4.85343 8.07381
2 5.09343 2.85216 0.883923
2 7.15789 8.79416 5.16206
2 4.16322 9.03184 11.208
2 2.09875 3.08984 6.92991
2 -3.71515 1.00895 11.4281
2 9.97712 6.95095 6.70983
2 12.9718 10.875 0.663849
2 -0.720473 4.93305 5.38213
2 -1.02899 0.930517 5.35553
2 13.2803 6.87252 0.690451
2 10.2856 10.9535 6.73643
2 -4.02367 5.01148 11.4015
2 8.30415 1.4653 11.9989
2 -2.04218 7.4073 6.13909
2 0.952495 10.4187 0.0931081
2 11.2988 4.4767 5.95287
2 11.2986 1.67802 6.16569
2 -5.03665 7.62002 11.9723
2 -2.04197 10.206 5.92627
2 14.2933 4.26398 0.11971
2 9.1488 2.97575 4.96859
2 3.10252 8.91775 1.07739
2 0.107841 8.90825 7.12338
2 6.15412 2.96625 11.0146
2 1.1536 1.75527 11.3036
2 5.10836 7.69727 6.83438
2 8.10304 10.1287 0.788396
2 4.14828 4.18673 5.25759
2 3.85752 1.46054 5.30595
2 8.3938 7.40254 0.740028
2 5.39912 10.4235 6.78601
2 0.86284 4.48146 11.3519
2 -1.16473 2.80106 10.2866
2 7.42669 8.74306 7.85131
2 10.4214 9.08294 1.80533
2 1.82995 3.14094 4.24065
2 8.42471 0.425447 8.25881
2 -2.16275 6.36745 9.87914
2 0.831932 11.4586 3.83315
2 11.4194 5.51655 2.21283
2 10.9368 0.741562 2.02057
2 1.31453 6.68356 4.02542
2 -1.68015 11.1424 10.0714
2 7.94212 5.20044 8.06655
2 -4.22706 2.43028 9.33742
2 10.489 8.37228 8.80053
2 13.4837 9.45372 2.75455
2 -1.23238 3.51172 3.29143
2 5.96526 0.944778 3.42686
2 6.28607 6.88678 2.61912
2 3.29139 10.9392 8.6651
2 2.97058 4.99722 9.47285
2 0.875972 0.515766 7.53329
2 5.38599 6.45777 10.6047
2 8.38067 11.3682 4.55867
2 3.87065 5.42623 1.48731
2 3.84806 0.5122 1.61911
2 8.40327 6.4542 4.42687
2 5.40859 11.3718 10.4729
2 0.853376 5.4298 7.6651
2 3.47571 2.47425 9.12097
2 2.78626 8.41625 9.01698
2 5.78094 9.40975 2.971
2 6.47038 3.46775 3.07499
2 13.9365 1.01727 2.61912
2 -1.68519 6.95927 3.42686
2 -4.67987 10.8667 9.47285
2 10.9418 4.92473 8.6651
2 3.78523 1.22643 11.5249
2 2.47674 7.16843 6.6131
2 5.47141 10.6576 0.567113
2 6.77991 4.71557 5.47887
2 7.33923 2.31025 6.84284
2 -1.07727 8.25225 11.2951
2 1.91741 9.57375 5.24912
2 10.3339 3.63175 0.796861
2 2.25458 2.4588 1.69046
2 9.99674 8.4008 4.35553
2 7.00207 9.4252 10.4015
2 -0.740102 3.4832 7.73644
2 -2.0732 1.14799 8.21165
2 8.33516 7.08999 9.92629
2 11.3298 10.736 3.88031
2 0.921483 4.79401 2.16567
144
Atoms. Timestep: 10
1 9.55046 0.976483 10.2638
1 -3.29526 6.89635 7.92155
1 -0.289002 10.9894 1.88572
1 12.5558 4.93927 4.12246
1 12.295 0.855222 4.19238
1 0.0130561 6.79412 1.79393
1 -3.04514 10.9302 7.89536
1 9.21875 4.98344 10.1779
1 9.10826 1.02165 6.05926
1 -2.73829 6.94696 11.9531
1 0.279401 10.9588 6.03273
1 12.1172 4.95295 0.140473
1 12.0025 0.893387 0.00133563
1 0.231933 6.82602 6.02769
1 -2.84769 10.8779 12.0368
1 9.02945 5.0171 6.17306
1 3.22492 1.05954 7.32792
1 3.09396 6.97034 10.6714
1 6.14406 10.9243 4.77389
1 6.10407 4.97059 1.39719
1 6.26377 0.832949 1.18818
1 6.06828 6.74133 4.97037
1 2.99745 10.9991 10.9061
1 3.20655 5.05984 7.24425
1 -0.148778 0.961302 9.47162
1 6.32865 6.79073 8.69402
1 9.43255 10.9719 2.6075
1 2.80955 4.99614 3.49625
1 2.54992 1.05279 3.45153
1 9.65009 6.86287 2.60679
1 6.67698 10.9131 8.57575
1 -0.439383 4.87701 9.50825
1 6.22477 2.97448 8.67017
1 -0.0475127 8.91508 9.41638
1 2.96961 8.97964 3.37606
1 9.24363 3.02298 2.62473
1 5.79076 2.69769 5.02852
1 6.4244 8.61804 0.923774
1 3.33213 9.27955 7.06381
1 2.80234 3.34888 11.0853
1 0.0821671 2.79271 5.73723
1 12.0892 8.78839 0.331616
1 9.0961 9.07633 6.25797
1 -2.84594 3.05769 11.7992
1 -0.100886 2.78549 1.65657
1 12.287 8.61121 4.44046
1 9.25807 9.23215 10.4282
1 -3.08967 3.19993 7.69961
2 11.4742 3.01557 3.5995
2 0.887944 8.93017 2.56304
2 -2.17744 8.97268 8.57231
2 8.38883 3.01854 9.55128
2 5.38634 0.854785 8.214
2 0.876876 6.87173 9.98092
2 3.95541 11.0635 3.97635
2 8.40336 4.99745 2.17015
2 8.33298 1.14015 2.00528
2 3.9816 7.08361 4.07032
2 1.00517 10.7877 10.1037
2 5.365 4.82971 8.04592
2 5.08837 2.90565 0.848418
2 7.09783 8.8499 5.20698
2 4.11295 8.98084 11.2413
2 2.08666 3.01426 6.9684
2 -3.66622 0.973533 11.482
2 9.97783 6.94681 6.73691
2 12.9809 10.8374 0.616486
2 -0.704887 4.87729 5.41674
2 -0.999248 0.85584 5.38733
2 13.2293 6.91283 0.678143
2 10.2533 10.9187 6.73455
2 -4.01085 5.03992 11.4572
2 8.27894 1.40957 11.9845
2 -2.08822 7.33964 6.19459
2 0.897139 10.391 0.118529
2 11.2766 4.52625 5.89939
2 11.2839 1.69015 6.12864
2 -5.02105 7.68094 12.0185
2 -1.98401 10.1976 5.9313
2 14.2496 4.21847 0.0553474
2 9.213 2.95799 4.93317
2 3.03542 8.91113 1.07663
2 0.0978865 8.89133 7.12912
2 6.16273 2.98475 10.9679
2 1.18236 1.78063 11.3239
2 5.06846 7.74736 6.88171
2 8.14068 10.0622 0.746676
2 4.10568 4.23182 5.25104
2 3.86887 1.52201 5.32736
2 8.4195 7.43907 0.722853
2 5.45151 10.4831 6.77377
2 0.9017 4.47182 11.2958
2 -1.1767 2.80402 10.3405
2 7.45116 8.77292 7.85872
2 10.4714 9.04888 1.78731
2 1.82784 3.13844 4.29266
2 8.45294 0.439039 8.22091
2 -2.14075 6.29152 9.84021
2 0.772621 11.4794 3.82218
2 11.4713 5.5124 2.19948
2 10.8852 0.800975 1.96098
2 1.29743 6.6801 3.97781
2 -1.70609 11.1675 10.0486
2 7.88708 5.20068 8.13616
2 -4.25269 2.38747 9.31335
2 10.494 8.39442 8.76534
2 13.4581 9.3973 2.77884
2 -1.26178 3.50884 3.25902
2 5.94512 0.934081 3.47523
2 6.34485 6.91176 2.63148
2 3.34225 10.8752 8.60489
2 2.97747 4.93061 9.45653
2 0.863261 0.445411 7.51389
2 5.39086 6.46748 10.6716
2 8.35938 11.3624 4.5802
2 3.88107 5.48858 1.47269
2 3.87324 0.569069 1.62362
2 8.40331 6.51825 4.41769
2 5.48054 11.3128 10.4667
2 0.879546 5.40256 7.65751
2 3.53707 2.43642 9.11034
2 2.73391 8.45767 9.0653
2 5.83038 9.39716 2.93629
2 6.4004 3.42324 3.0121
2 13.9368 1.02813 2.60787
2 -1.64416 7.00813 3.45323
2 -4.67567 10.8483 9.52661
2 10.9127 4.87584 8.68419
2 3.75343 1.20361 11.478
2 2.43514 7.14891 6.6588
2 5.41602 10.6539 0.504884
2 6.80832 4.73066 5.50146
2 7.32146 2.31254 6.80823
2 -1.13408 8.28353 11.3041
2 1.89259 9.61914 5.19538
2 10.3352 3.60234 0.809347
2 2.28856 2.50844 1.74222
2 10.0254 8.37283 4.33766
2 7.03294 9.3878 10.3427
2 -0.752077 3.53073 7.70953
2 -2.0299 1.21086 8.22657
2 8.39605 7.10006 9.89594
2 11.3082 10.6907 3.87412
2 0.900566 4.73994 2.11711
144
Atoms. Timestep: 20
1 9.53309 0.922738 10.3272
1 -3.28424 6.81764 7.92827
1 -0.281112 11.0819 1.83262
1 12.5554 5.01368 4.15611
1 12.2938 0.80475 4.21256
1 0.0208363 6.72911 1.73214
1 -3.06008 10.9543 7.86048
1 9.19584 4.98044 10.1838
1 9.0785 0.994431 6.0001
1 -2.68847 6.91375 11.9474
1 0.371009 10.9492 6.05658
1 12.0947 4.96398 0.129576
1 6.02065 0.859575 12.0485
1 0.197317 6.78471 6.04845
1 -2.90397 10.8485 12.0492
1 9.02432 5.02529 6.20864
1 3.21113 0.989844 7.28311
1 3.12698 6.88643 10.6796
1 6.21699 11.0289 4.83026
1 6.06462 5.05176 1.34792
1 6.34925 0.789032 1.16862
1 6.01201 6.70492 5.06831
1 2.96402 11.0073 10.9217
1 3.28344 5.05335 7.23488
1 -0.0879449 0.951605 9.43601
1 6.23633 6.75291 8.73804
1 9.40534 11.0083 2.6329
1 2.82504 5.03038 3.47911
1 2.41768 1.06078 3.48028
1 9.75935 6.80569 2.593
1 6.81683 10.9431 8.54699
1 -0.539712 4.84719 9.51318
1 6.17749 2.94943 8.64196
1 -0.0534202 8.95333 9.42152
1 3.03527 9.01538 3.38222
1 9.23234 3.01204 2.65374
1 5.75876 2.72246 5.05437
1 6.43541 8.58286 0.828801
1 3.28371 9.32624 7.00587
1 2.81804 3.40673 11.1142
1 0.0402529 2.71504 5.70845
1 12.1073 8.77183 0.330653
1 9.09853 9.11334 6.20956
1 -2.91269 3.07759 11.7789
1 -0.0870531 2.70194 1.58663
1 12.2495 8.49669 4.52123
1 9.22902 9.34224 10.4341
1 -3.08801 3.27472 7.65641
2 11.5052 3.04359 3.65558
2 0.921865 8.95642 2.61223
2 -2.18555 8.99853 8.58427
2 8.3503 3.01666 9.52018
2 5.41403 0.829121 8.22939
2 0.829842 6.89746 10.0163
2 3.9996 11.1241 4.0433
2 8.43141 4.96522 2.18221
2 8.35949 1.16004 1.99158
2 4.01374 7.12538 4.1112
2 1.01415 10.7967 10.1166
2 5.38985 4.84186 8.01026
2 5.09793 2.97179 0.821275
2 7.02205 8.90806 5.24042
2 4.06985 8.91618 11.2739
2 2.06501 2.92919 7.00273
2 -3.64535 0.955138 11.5364
2 9.99133 6.95869 6.7505
2 13.015 10.8047 0.570531
2 -0.712573 4.82846 5.45277
2 -0.975694 0.764354 5.41212
2 13.1845 6.93452 0.673265
2 10.2147 10.9152 6.73272
2 -3.99134 5.07825 11.5059
2 8.24568 1.36347 11.9868
2 -2.10786 7.2805 6.2308
2 0.841284 10.3621 0.14725
2 11.2529 4.56924 5.8524
2 11.2752 1.71701 6.09631
2 -4.99963 7.75128 12.0505
2 -1.91987 10.1756 5.92985
2 8.22968 4.15571 12.089
2 9.28298 2.95286 4.90452
2 2.96265 8.88843 1.07805
2 0.0738772 8.87772 7.11612
2 6.17787 3.00258 10.94
2 1.19993 1.80844 11.3404
2 5.02597 7.80856 6.92958
2 8.17975 9.99756 0.724477
2 4.06924 4.27055 5.24212
2 3.86777 1.5799 5.31127
2 8.45416 7.45882 0.709889
2 5.47989 10.5237 6.77579
2 0.907114 4.48208 11.2646
2 -1.1698 2.80778 10.385
2 7.4591 8.78811 7.86328
2 10.4861 9.01794 1.79112
2 1.83064 3.1263 4.34924
2 8.49726 0.459379 8.17698
2 -2.13241 6.22237 9.81377
2 0.71722 11.5053 3.82487
2 11.5175 5.51623 2.18256
2 10.8291 0.859834 1.91126
2 1.28545 6.68261 3.93422
2 -1.71904 11.1963 10.0282
2 7.83318 5.20337 8.19443
2 -4.2982 2.32928 9.30539
2 10.5052 8.41254 8.73763
2 13.4592 9.37119 2.7859
2 -1.30487 3.51625 3.2471
2 5.94174 0.922564 3.53021
2 6.3837 6.93746 2.62967
2 3.37672 10.8431 8.5443
2 2.99798 4.87565 9.46914
2 0.881441 0.409706 7.53885
2 5.38631 6.46331 10.755
2 8.35034 11.3672 4.59121
2 3.88481 5.55977 1.4706
2 3.88931 0.620011 1.64087
2 8.39977 6.57294 4.40808
2 5.55185 11.25 10.4442
2 0.890127 5.36479 7.67945
2 3.58141 2.39787 9.10518
2 2.69197 8.49173 9.10031
2 5.88386 9.40167 2.91992
2 6.32689 3.39444 2.9484
2 13.9458 1.0402 2.60203
2 -1.60648 7.04239 3.46984
2 -4.68042 10.8496 9.5648
2 10.9085 4.83512 8.70796
2 3.70335 1.20306 11.4349
2 2.42757 7.16137 6.69925
2 5.38281 10.6408 0.449219
2 6.82223 4.70666 5.52518
2 7.31658 2.29293 6.76228
2 -1.17294 8.30172 11.3009
2 1.86825 9.67839 5.14929
2 10.3507 3.59878 0.798751
2 2.31037 2.56 1.78187
2 10.0577 8.34413 4.3143
2 7.04879 9.34759 10.2956
2 -0.776064 3.56985 7.68159
2 -2.00185 1.26682 8.22401
2 8.45635 7.12358 9.87887
2 11.2958 10.6428 3.88233
2 0.891821 4.69374 2.06041
144
Atoms. Timestep: 30
1 9.52023 0.834008 10.352
1 -3.2852 6.70942 7.99
1 -0.288973 11.1751 1.77353
1 12.5709 5.16962 4.21519
1 12.285 0.761753 4.23781
1 -0.0268608 6.65695 1.67783
1 -3.07289 11.0428 7.80512
1 9.23922 5.02057 10.248
1 9.00936 0.936876 5.97593
1 -2.68358 6.85569 11.9655
1 0.416278 10.888 6.04425
1 12.0268 4.96619 0.0601918
1 6.04812 0.865412 12.0446
1 0.134687 6.79074 6.03198
1 -2.92752 10.8318 12.0527
1 9.01391 4.99964 6.22726
1 3.14891 0.857106 7.28591
1 3.15402 6.76266 10.7218
1 6.26177 11.1142 4.84952
1 6.08419 5.11504 1.23796
1 6.42432 0.712545 1.10651
1 5.90459 6.69323 5.17842
1 2.98874 11.0406 10.9717
1 3.38917 5.07573 7.19682
1 0.00252324 0.919993 9.44374
1 6.14865 6.78435 8.75633
1 9.34513 11.0529 2.63998
1 2.87847 5.09952 3.42359
1 2.27958 1.01261 3.53826
1 9.8958 6.77375 2.55098
1 7.00726 10.9779 8.54192
1 -0.59605 4.84125 9.52702
1 6.14906 2.88526 8.63553
1 -0.0464723 8.99092 9.41664
1 3.15998 9.05545 3.38644
1 9.27269 2.96856 2.7434
1 5.78333 2.75669 5.09521
1 6.41284 8.52106 0.758639
1 3.25403 9.32617 6.88425
1 2.91644 3.42082 11.1752
1 0.0303996 2.62335 5.69946
1 12.1286 8.75911 0.255755
1 9.09596 9.13674 6.16978
1 -3.03108 3.15414 11.7544
1 -0.0445813 2.5716 1.45795
1 12.2482 8.41393 4.63921
1 9.24859 9.39422 10.4854
1 -3.08152 3.35298 7.56916
2 11.5241 3.04001 3.70068
2 0.919675 8.98129 2.65983
2 -2.19962 8.99716 8.58536
2 8.32835 2.96947 9.49115
2 5.43022 0.794385 8.22872
2 0.771827 6.89469 10.0567
2 4.03135 11.1823 4.0967
2 8.41888 4.97917 2.17524
2 8.37245 1.1444 1.98523
2 4.04359 7.15613 4.13608
2 0.974915 10.823 10.1005
2 5.37895 4.87666 7.96392
2 5.11333 3.03675 0.801813
2 6.9328 8.94551 5.25512
2 4.0402 8.85382 11.2979
2 2.03026 2.85456 7.03473
2 -3.64827 0.966064 11.5857
2 10.0064 6.98944 6.74982
2 13.0675 10.7803 0.534131
2 -0.733111 4.78472 5.4807
2 -0.980513 0.655528 5.42546
2 13.1711 6.92249 0.683196
2 10.1891 10.9505 6.73474
2 -3.9828 5.12506 11.5396
2 8.19785 1.33127 12.0121
2 -2.08789 7.23269 6.24667
2 0.802045 10.3302 0.175114
2 11.2159 4.60335 5.82278
2 11.2739 1.75522 6.07566
2 -4.98004 7.81866 12.0616
2 -1.85774 10.1409 5.91875
2 8.21695 4.07777 12.0484
2 9.34679 2.96688 4.89904
2 2.89871 8.85065 1.0891
2 0.0376426 8.85823 7.08758
2 6.19373 3.01166 10.9334
2 1.20029 1.83823 11.3518
2 4.98359 7.87557 6.9796
2 8.21537 9.94665 0.733103
2 4.0416 4.3049 5.22263
2 3.8434 1.6308 5.2524
2 8.49476 7.44955 0.71449
2 5.47649 10.538 6.81038
2 0.871991 4.51517 11.2538
2 -1.14718 2.79465 10.4155
2 7.45285 8.77176 7.85877
2 10.4632 9.00546 1.82345
2 1.84016 3.1244 4.40287
2 8.57796 0.506124 8.13498
2 -2.16527 6.18978 9.81206
2 0.655368 11.5215 3.83147
2 11.5748 5.5101 2.16772
2 10.7797 0.913057 1.86811
2 1.27267 6.68957 3.90181
2 -1.72345 11.2339 10.0147
2 7.79344 5.21657 8.23302
2 -4.34897 2.26408 9.29531
2 10.5221 8.42605 8.72504
2 13.4762 9.38008 2.78909
2 -1.33842 3.52798 3.23042
2 5.94934 0.927321 3.55543
2 6.40496 6.9622 2.62855
2 3.39965 10.8506 8.5154
2 3.0268 4.83816 9.48167
2 0.936346 0.418126 7.61063
2 5.37608 6.45792 10.838
2 8.37462 11.3695 4.57059
2 3.88156 5.6275 1.50361
2 3.90316 0.661557 1.67493
2 8.37805 6.60862 4.39498
2 5.60798 11.1903 10.4034
2 0.900553 5.32166 7.72996
2 3.6037 2.3594 9.1031
2 2.66266 8.50828 9.11746
2 5.9389 9.42237 2.91121
2 6.25511 3.39152 2.89274
2 13.9415 1.06189 2.61604
2 -1.55486 7.05825 3.46701
2 -4.66761 10.8805 9.56655
2 -4.3295 4.79958 8.74655
2 3.64731 1.221 11.3994
2 2.44725 7.19515 6.73707
2 5.37042 10.6265 0.410346
2 6.83036 4.65416 5.54419
2 7.32588 2.26002 6.71139
2 -1.1902 8.31391 11.2733
2 1.8663 9.72474 5.08652
2 10.374 3.61171 0.781954
2 2.32675 2.60557 1.80664
2 10.078 8.31693 4.28855
2 7.03619 9.29689 10.2647
2 -0.806165 3.58899 7.6484
2 -1.9959 1.31431 8.20952
2 8.51675 7.16162 9.87131
2 11.2973 10.5937 3.89907
2 0.889424 4.65288 2.00302
144
Atoms. Timestep: 40
1 9.49044 0.743393 10.3771
1 -3.29563 6.61924 8.01076
1 -0.303965 11.2828 1.72536
1 12.5895 5.3401 4.28476
1 12.2702 0.719373 4.26702
1 -0.103689 6.57351 1.61001
1 -3.06675 11.1575 7.73454
1 9.32551 5.07736 10.3471
1 8.95947 0.921611 5.97356
1 -2.69199 6.85244 11.9668
1 0.408517 10.8824 6.10399
1 5.99641 4.92017 12.091
1 6.04402 0.869028 12.0637
1 0.103411 6.8074 6.00028
1 -2.92139 10.8362 12.0505
1 8.9953 4.9714 6.24134
1 3.09297 0.744737 7.24603
1 3.14559 6.64644 10.7841
1 6.26419 11.1387 4.89495
1 6.14251 5.17557 1.11323
1 6.48395 0.582169 1.01602
1 5.79654 6.66549 5.31862
1 3.00883 11.0635 11.0271
1 3.42927 5.15647 7.15339
1 0.0442859 0.903027 9.52449
1 6.08691 6.85834 8.77291
1 9.31631 11.0844 2.60801
1 2.92499 5.18255 3.37924
1 2.21237 0.961314 3.58748
1 9.98174 6.77714 2.51163
1 7.169 10.9867 8.55457
1 -0.588428 4.84188 9.53744
1 6.13034 2.85238 8.62806
1 -0.030993 9.00192 9.38593
1 3.30279 9.11479 3.37607
1 9.34673 2.92939 2.78247
1 5.82487 2.77281 5.12849
1 6.37525 8.46651 0.732732
1 3.23855 9.31795 6.75658
1 3.01259 3.40632 11.2406
1 0.0332394 2.53049 5.72484
1 12.1171 8.75264 0.132985
1 9.07646 9.15828 6.13302
1 -3.13932 3.23041 11.7186
1 0.0275538 2.47833 1.35475
1 12.2884 8.39713 4.73492
1 9.28372 9.37107 10.5292
1 -3.09286 3.40421 7.49301
2 11.5466 3.01544 3.72718
2 0.894537 9.00152 2.71306
2 -2.22378 8.98418 8.57393
2 8.33373 2.90362 9.46527
2 5.43336 0.738668 8.21573
2 0.714661 6.87158 10.0926
2 4.04843 11.2368 4.12394
2 8.37116 5.02011 2.16318
2 8.36256 1.11581 1.98705
2 4.05806 7.17559 4.13378
2 0.928218 10.8588 10.0763
2 5.37478 4.90085 7.9266
2 5.11693 3.08871 0.784083
2 6.8424 8.94966 5.25029
2 4.02226 8.80571 11.3024
2 1.9881 2.80161 7.06619
2 -3.66289 1.00973 11.631
2 10.0116 7.03275 6.73384
2 13.1226 10.7611 0.509064
2 -0.749463 4.73847 5.49176
2 -1.02375 0.543652 5.4308
2 13.19 6.87712 0.705912
2 10.1856 11.0083 6.73819
2 -4.00872 5.18293 11.5511
2 8.14569 1.30503 12.0355
2 -2.04512 7.18441 6.28298
2 0.802998 10.301 0.211425
2 11.1628 4.63316 5.80629
2 11.2789 1.79731 6.0696
2 -4.97674 7.86229 12.055
2 -1.81221 10.0944 5.8996
2 8.21856 3.99389 12.0305
2 9.38879 2.99789 4.94753
2 2.86142 8.80957 1.11797
2 -0.00486714 8.82457 7.05717
2 6.20772 3.00512 10.9391
2 1.18347 1.87905 11.3599
2 4.94856 7.94213 7.03738
2 8.23509 9.91227 0.772526
2 4.0242 4.32972 5.17982
2 3.79386 1.67266 5.17531
2 8.53164 7.40849 0.745251
2 5.45563 10.5304 6.8774
2 0.826284 4.55169 11.2479
2 -1.12521 2.75765 10.4351
2 7.43789 8.72056 7.83924
2 10.4228 9.01933 1.8705
2 1.85611 3.14572 4.44314
2 8.70698 0.594271 8.11199
2 -2.24096 6.20513 9.85202
2 0.566647 11.5023 3.82973
2 11.6712 5.46643 2.15513
2 10.7477 0.957164 1.82936
2 1.25677 6.69601 3.88365
2 -1.7271 11.2814 10.0104
2 7.77314 5.24653 8.25856
2 -4.39089 2.20548 9.27146
2 10.5461 8.43591 8.72739
2 13.497 9.41893 2.79826
2 -1.34893 3.54377 3.19475
2 5.9604 0.96878 3.52362
2 6.41267 6.97986 2.6339
2 3.41616 10.8627 8.52865
2 3.05829 4.81141 9.46682
2 1.00891 0.43201 7.67332
2 5.36278 6.48506 10.8779
2 8.42939 11.3484 4.51096
2 3.89554 5.67938 1.57853
2 3.91871 0.693568 1.72416
2 8.33369 6.61818 4.37506
2 5.63883 11.1497 10.3523
2 0.925428 5.28644 7.7919
2 3.60454 2.32352 9.09333
2 2.64381 8.50222 9.12127
2 5.99198 9.45573 2.89918
2 6.19388 3.4188 2.85715
2 13.908 1.10707 2.66198
2 -1.48296 7.06949 3.43901
2 -4.62003 10.9249 9.52047
2 -4.32459 4.75382 8.80605
2 3.5994 1.25367 11.3789
2 2.47442 7.22458 6.77626
2 5.37492 10.6112 0.393314
2 6.84263 4.61363 5.55419
2 7.34105 2.22486 6.67256
2 -1.20291 8.31661 11.2198
2 1.90454 9.73586 4.97899
2 10.3961 3.62908 0.798456
2 2.34508 2.62689 1.82509
2 10.0824 8.29097 4.26697
2 7.01115 9.23243 10.2428
2 -0.832879 3.58339 7.61602
2 -2.0079 1.35259 8.19332
2 8.57564 7.20441 9.86765
2 11.3091 10.5444 3.91476
2 0.880793 4.60956 1.95347
144
Atoms. Timestep: 50
1 9.44259 0.674588 10.4375
1 -3.31677 6.5649 7.93355
1 -0.3085 11.4207 1.6667
1 12.5816 5.4715 4.37766
1 12.2349 0.675967 4.30864
1 -0.128693 6.46925 1.51582
1 -3.01642 11.2621 7.64458
1 9.38377 5.13902 10.4526
1 8.95494 0.940885 5.926
1 -2.67955 6.90736 11.9897
1 0.420012 10.9064 6.21249
1 6.01107 4.86614 12.0576
1 5.97166 0.835693 12.0776
1 0.151151 6.79501 5.96893
1 -2.89706 10.8715 12.0508
1 8.96797 4.97308 6.26864
1 3.11196 0.708317 7.09711
1 3.09124 6.56622 10.8675
1 6.25142 11.1329 4.96725
1 6.18923 5.26391 1.04549
1 6.56046 0.404878 0.911364
1 5.70169 6.60605 5.4916
1 2.97579 11.05 11.0767
1 3.38249 5.29221 7.11222
1 0.00786871 0.9196 9.61969
1 6.06665 6.92143 8.79458
1 9.37591 11.0797 2.51097
1 2.90158 5.26202 3.42438
1 2.22652 0.921733 3.61865
1 10.0301 6.77878 2.47896
1 7.27158 10.9602 8.57053
1 -0.597662 4.88274 9.52705
1 6.11875 2.87244 8.60687
1 -0.00222883 8.9801 9.33286
1 3.46037 9.19124 3.32356
1 9.42427 2.90005 2.73591
1 5.81756 2.73134 5.14337
1 6.34654 8.44688 0.735218
1 3.22439 9.35416 6.66711
1 3.03223 3.40347 11.2565
1 0.033484 2.43291 5.78577
1 12.077 8.71187 0.0254423
1 9.04663 9.20787 6.1063
1 -3.188 3.26148 11.6676
1 0.135339 2.44656 1.31434
1 12.3292 8.44111 4.77388
1 9.3143 9.31913 10.5195
1 -3.11581 3.43576 7.46422
2 11.5803 2.9808 3.72914
2 0.855289 9.01541 2.7694
2 -2.25351 8.97151 8.55296
2 8.36183 2.84067 9.44349
2 5.4287 0.671397 8.19719
2 0.667929 6.84231 10.1156
2 4.05458 11.2908 4.12123
2 8.29966 5.06859 2.1583
2 8.31765 1.10676 1.99916
2 4.0571 7.18505 4.09955
2 0.908922 10.8765 10.0619
2 5.3989 4.90095 7.91296
2 5.09709 3.12581 0.766801
2 6.76426 8.91757 5.22963
2 4.00377 8.77845 11.2817
2 1.94642 2.77348 7.09748
2 -3.68124 1.07478 11.6758
2 10.0004 7.08424 6.70238
2 13.165 10.7359 0.49292
2 -0.751528 4.68681 5.47682
2 -1.1025 0.45417 5.43394
2 13.2008 6.82731 0.720791
2 10.1975 11.0589 6.73443
2 -4.06505 5.25843 11.5497
2 8.09544 1.27704 12.0401
2 -1.99869 7.12764 6.35857
2 0.851833 10.2826 0.267056
2 11.106 4.67006 5.78782
2 11.2937 1.83578 6.07565
2 -4.99689 7.86585 12.0389
2 -1.79296 10.0365 5.87631
2 8.23454 3.91282 12.03
2 9.39466 3.04494 5.03635
2 2.85912 8.78154 1.17003
2 -0.0415389 8.77688 7.0358
2 6.21842 2.97219 10.9375
2 1.15393 1.93814 11.3738
2 4.92517 8.0035 7.10836
2 8.22742 9.89078 0.832689
2 4.02055 4.34089 5.11863
2 3.73728 1.70971 5.09729
2 8.55665 7.34355 0.804071
2 5.43553 10.5056 6.9687
2 0.802084 4.56748 11.2208
2 -1.12077 2.70668 10.4445
2 7.42396 8.645 7.80187
2 10.3839 9.05915 1.91755
2 1.86515 3.18899 4.46521
2 8.86471 0.711176 8.13287
2 -2.32641 6.24604 9.92336
2 0.454481 11.4381 3.81853
2 11.802 5.38399 2.15716
2 10.7348 0.993569 1.79842
2 1.23521 6.7 3.88025
2 -1.73956 11.3342 10.0186
2 7.77318 5.29392 8.28128
2 -4.42242 2.15699 9.24027
2 10.5778 8.44312 8.73789
2 13.5179 9.47994 2.81359
2 -1.33816 3.57211 3.14731
2 5.97558 1.03648 3.4438
2 6.411 6.98702 2.64558
2 3.42827 10.8522 8.58512
2 3.09039 4.78105 9.41913
2 1.06187 0.44063 7.73061
2 5.35231 6.55307 10.8688
2 8.48441 11.3027 4.44208
2 3.95715 5.72662 1.64987
2 3.9385 0.716387 1.78127
2 8.2703 6.60028 4.35049
2 5.64309 11.1382 10.299
2 0.970265 5.26229 7.8501
2 3.58997 2.29315 9.06518
2 2.62834 8.47664 9.11823
2 6.0393 9.49916 2.88095
2 6.15166 3.47568 2.85123
2 13.8466 1.18314 2.73648
2 -1.39298 7.0939 3.38512
2 -4.54076 10.9567 9.43484
2 -4.32845 4.68702 8.88338
2 3.5672 1.28599 11.3763
2 2.49112 7.23936 6.81802
2 5.38477 10.58 0.39382
2 6.86484 4.61438 5.5534
2 7.34486 2.19641 6.66512
2 -1.21646 8.31573 11.1424
2 1.94727 9.73468 4.84861
2 10.4158 3.645 0.878124
2 2.37327 2.61487 1.83969
2 10.0805 8.26315 4.26234
2 6.99857 9.16477 10.2111
2 -0.847987 3.55719 7.59637
2 -2.03159 1.38385 8.18253
2 8.631 7.23391 9.86291
2 11.3257 10.4952 3.92313
2 0.860039 4.56243 1.92008
